# vtk DataFile Version 2.0
VTK from Matlab
ASCII
DATASET STRUCTURED_GRID
DIMENSIONS 112 151 1
POINTS 16912 float
400.00 400.00 9.00 800.00 400.00 5.00 1200.00 400.00 5.00 1600.00 400.00 5.00 2000.00 400.00 5.00 2400.00 400.00 5.00 2800.00 400.00 5.00 3200.00 400.00 5.00 3600.00 400.00 5.00 4000.00 400.00 5.00 4400.00 400.00 5.00 4800.00 400.00 4.00 5200.00 400.00 4.00 5600.00 400.00 4.00 6000.00 400.00 4.00 6400.00 400.00 4.00 6800.00 400.00 4.00 7200.00 400.00 4.00 7600.00 400.00 5.00 8000.00 400.00 5.00 8400.00 400.00 5.00 8800.00 400.00 5.00 9200.00 400.00 5.00 9600.00 400.00 5.00 10000.00 400.00 5.00 10400.00 400.00 5.00 10800.00 400.00 5.00 11200.00 400.00 5.00 11600.00 400.00 4.00 12000.00 400.00 7.00 12400.00 400.00 31.00 12800.00 400.00 60.00 13200.00 400.00 141.00 13600.00 400.00 162.00 14000.00 400.00 205.00 14400.00 400.00 91.00 14800.00 400.00 131.00 15200.00 400.00 173.00 15600.00 400.00 217.00 16000.00 400.00 200.00 16400.00 400.00 97.00 16800.00 400.00 56.00 17200.00 400.00 82.00 17600.00 400.00 144.00 18000.00 400.00 177.00 18400.00 400.00 191.00 18800.00 400.00 212.00 19200.00 400.00 274.00 19600.00 400.00 374.00 20000.00 400.00 430.00 20400.00 400.00 478.00 20800.00 400.00 505.00 21200.00 400.00 532.00 21600.00 400.00 592.00 22000.00 400.00 661.00 22400.00 400.00 663.00 22800.00 400.00 811.00 23200.00 400.00 860.00 23600.00 400.00 749.00 24000.00 400.00 665.00 24400.00 400.00 606.00 24800.00 400.00 508.00 25200.00 400.00 616.00 25600.00 400.00 525.00 26000.00 400.00 577.00 26400.00 400.00 611.00 26800.00 400.00 671.00 27200.00 400.00 722.00 27600.00 400.00 798.00 28000.00 400.00 758.00 28400.00 400.00 771.00 28800.00 400.00 739.00 29200.00 400.00 814.00 29600.00 400.00 803.00 30000.00 400.00 893.00 30400.00 400.00 933.00 30800.00 400.00 948.00 31200.00 400.00 996.00 31600.00 400.00 972.00 32000.00 400.00 925.00 32400.00 400.00 856.00 32800.00 400.00 880.00 33200.00 400.00 792.00 33600.00 400.00 820.00 34000.00 400.00 807.00 34400.00 400.00 829.00 34800.00 400.00 829.00 35200.00 400.00 805.00 35600.00 400.00 766.00 36000.00 400.00 739.00 36400.00 400.00 737.00 36800.00 400.00 763.00 37200.00 400.00 727.00 37600.00 400.00 756.00 38000.00 400.00 790.00 38400.00 400.00 793.00 38800.00 400.00 791.00 39200.00 400.00 783.00 39600.00 400.00 748.00 40000.00 400.00 714.00 40400.00 400.00 814.00 40800.00 400.00 834.00 41200.00 400.00 859.00 41600.00 400.00 898.00 42000.00 400.00 910.00 42400.00 400.00 949.00 42800.00 400.00 915.00 43200.00 400.00 903.00 43600.00 400.00 958.00 44000.00 400.00 979.00 44400.00 400.00 994.00 44800.00 400.00 923.00 400.00 800.00 9.00 800.00 800.00 9.00 1200.00 800.00 9.00 1600.00 800.00 9.00 2000.00 800.00 5.00 2400.00 800.00 5.00 2800.00 800.00 5.00 3200.00 800.00 5.00 3600.00 800.00 5.00 4000.00 800.00 5.00 4400.00 800.00 5.00 4800.00 800.00 5.00 5200.00 800.00 5.00 5600.00 800.00 5.00 6000.00 800.00 5.00 6400.00 800.00 5.00 6800.00 800.00 4.00 7200.00 800.00 4.00 7600.00 800.00 4.00 8000.00 800.00 4.00 8400.00 800.00 4.00 8800.00 800.00 4.00 9200.00 800.00 5.00 9600.00 800.00 5.00 10000.00 800.00 5.00 10400.00 800.00 5.00 10800.00 800.00 9.00 11200.00 800.00 9.00 11600.00 800.00 14.00 12000.00 800.00 25.00 12400.00 800.00 45.00 12800.00 800.00 90.00 13200.00 800.00 131.00 13600.00 800.00 209.00 14000.00 800.00 253.00 14400.00 800.00 236.00 14800.00 800.00 115.00 15200.00 800.00 160.00 15600.00 800.00 209.00 16000.00 800.00 255.00 16400.00 800.00 264.00 16800.00 800.00 181.00 17200.00 800.00 73.00 17600.00 800.00 72.00 18000.00 800.00 76.00 18400.00 800.00 123.00 18800.00 800.00 138.00 19200.00 800.00 195.00 19600.00 800.00 283.00 20000.00 800.00 387.00 20400.00 800.00 472.00 20800.00 800.00 560.00 21200.00 800.00 633.00 21600.00 800.00 649.00 22000.00 800.00 742.00 22400.00 800.00 809.00 22800.00 800.00 877.00 23200.00 800.00 842.00 23600.00 800.00 740.00 24000.00 800.00 631.00 24400.00 800.00 502.00 24800.00 800.00 438.00 25200.00 800.00 543.00 25600.00 800.00 422.00 26000.00 800.00 542.00 26400.00 800.00 500.00 26800.00 800.00 548.00 27200.00 800.00 631.00 27600.00 800.00 638.00 28000.00 800.00 625.00 28400.00 800.00 666.00 28800.00 800.00 623.00 29200.00 800.00 638.00 29600.00 800.00 772.00 30000.00 800.00 898.00 30400.00 800.00 976.00 30800.00 800.00 1009.00 31200.00 800.00 949.00 31600.00 800.00 946.00 32000.00 800.00 943.00 32400.00 800.00 914.00 32800.00 800.00 882.00 33200.00 800.00 836.00 33600.00 800.00 821.00 34000.00 800.00 793.00 34400.00 800.00 792.00 34800.00 800.00 797.00 35200.00 800.00 745.00 35600.00 800.00 718.00 36000.00 800.00 720.00 36400.00 800.00 765.00 36800.00 800.00 754.00 37200.00 800.00 738.00 37600.00 800.00 754.00 38000.00 800.00 781.00 38400.00 800.00 812.00 38800.00 800.00 842.00 39200.00 800.00 824.00 39600.00 800.00 777.00 40000.00 800.00 715.00 40400.00 800.00 782.00 40800.00 800.00 869.00 41200.00 800.00 836.00 41600.00 800.00 911.00 42000.00 800.00 959.00 42400.00 800.00 928.00 42800.00 800.00 897.00 43200.00 800.00 899.00 43600.00 800.00 975.00 44000.00 800.00 1000.00 44400.00 800.00 966.00 44800.00 800.00 907.00 400.00 1200.00 9.00 800.00 1200.00 9.00 1200.00 1200.00 9.00 1600.00 1200.00 9.00 2000.00 1200.00 9.00 2400.00 1200.00 9.00 2800.00 1200.00 9.00 3200.00 1200.00 9.00 3600.00 1200.00 5.00 4000.00 1200.00 5.00 4400.00 1200.00 5.00 4800.00 1200.00 5.00 5200.00 1200.00 5.00 5600.00 1200.00 5.00 6000.00 1200.00 5.00 6400.00 1200.00 5.00 6800.00 1200.00 5.00 7200.00 1200.00 5.00 7600.00 1200.00 5.00 8000.00 1200.00 5.00 8400.00 1200.00 4.00 8800.00 1200.00 4.00 9200.00 1200.00 4.00 9600.00 1200.00 4.00 10000.00 1200.00 4.00 10400.00 1200.00 5.00 10800.00 1200.00 5.00 11200.00 1200.00 15.00 11600.00 1200.00 29.00 12000.00 1200.00 57.00 12400.00 1200.00 99.00 12800.00 1200.00 153.00 13200.00 1200.00 169.00 13600.00 1200.00 203.00 14000.00 1200.00 287.00 14400.00 1200.00 223.00 14800.00 1200.00 120.00 15200.00 1200.00 126.00 15600.00 1200.00 183.00 16000.00 1200.00 239.00 16400.00 1200.00 304.00 16800.00 1200.00 287.00 17200.00 1200.00 191.00 17600.00 1200.00 175.00 18000.00 1200.00 100.00 18400.00 1200.00 110.00 18800.00 1200.00 84.00 19200.00 1200.00 105.00 19600.00 1200.00 237.00 20000.00 1200.00 332.00 20400.00 1200.00 379.00 20800.00 1200.00 429.00 21200.00 1200.00 569.00 21600.00 1200.00 608.00 22000.00 1200.00 691.00 22400.00 1200.00 727.00 22800.00 1200.00 764.00 23200.00 1200.00 741.00 23600.00 1200.00 662.00 24000.00 1200.00 569.00 24400.00 1200.00 418.00 24800.00 1200.00 433.00 25200.00 1200.00 428.00 25600.00 1200.00 328.00 26000.00 1200.00 394.00 26400.00 1200.00 420.00 26800.00 1200.00 463.00 27200.00 1200.00 488.00 27600.00 1200.00 526.00 28000.00 1200.00 498.00 28400.00 1200.00 505.00 28800.00 1200.00 590.00 29200.00 1200.00 693.00 29600.00 1200.00 806.00 30000.00 1200.00 867.00 30400.00 1200.00 910.00 30800.00 1200.00 941.00 31200.00 1200.00 950.00 31600.00 1200.00 959.00 32000.00 1200.00 947.00 32400.00 1200.00 922.00 32800.00 1200.00 861.00 33200.00 1200.00 863.00 33600.00 1200.00 813.00 34000.00 1200.00 760.00 34400.00 1200.00 764.00 34800.00 1200.00 738.00 35200.00 1200.00 719.00 35600.00 1200.00 716.00 36000.00 1200.00 739.00 36400.00 1200.00 783.00 36800.00 1200.00 770.00 37200.00 1200.00 765.00 37600.00 1200.00 753.00 38000.00 1200.00 791.00 38400.00 1200.00 854.00 38800.00 1200.00 850.00 39200.00 1200.00 812.00 39600.00 1200.00 731.00 40000.00 1200.00 756.00 40400.00 1200.00 833.00 40800.00 1200.00 847.00 41200.00 1200.00 904.00 41600.00 1200.00 972.00 42000.00 1200.00 966.00 42400.00 1200.00 918.00 42800.00 1200.00 881.00 43200.00 1200.00 949.00 43600.00 1200.00 1009.00 44000.00 1200.00 1020.00 44400.00 1200.00 937.00 44800.00 1200.00 928.00 400.00 1600.00 9.00 800.00 1600.00 9.00 1200.00 1600.00 9.00 1600.00 1600.00 9.00 2000.00 1600.00 9.00 2400.00 1600.00 9.00 2800.00 1600.00 9.00 3200.00 1600.00 9.00 3600.00 1600.00 9.00 4000.00 1600.00 9.00 4400.00 1600.00 9.00 4800.00 1600.00 9.00 5200.00 1600.00 5.00 5600.00 1600.00 5.00 6000.00 1600.00 5.00 6400.00 1600.00 5.00 6800.00 1600.00 5.00 7200.00 1600.00 5.00 7600.00 1600.00 5.00 8000.00 1600.00 5.00 8400.00 1600.00 5.00 8800.00 1600.00 5.00 9200.00 1600.00 5.00 9600.00 1600.00 5.00 10000.00 1600.00 4.00 10400.00 1600.00 4.00 10800.00 1600.00 4.00 11200.00 1600.00 16.00 11600.00 1600.00 32.00 12000.00 1600.00 50.00 12400.00 1600.00 99.00 12800.00 1600.00 147.00 13200.00 1600.00 235.00 13600.00 1600.00 260.00 14000.00 1600.00 287.00 14400.00 1600.00 241.00 14800.00 1600.00 164.00 15200.00 1600.00 123.00 15600.00 1600.00 196.00 16000.00 1600.00 242.00 16400.00 1600.00 278.00 16800.00 1600.00 318.00 17200.00 1600.00 300.00 17600.00 1600.00 303.00 18000.00 1600.00 223.00 18400.00 1600.00 274.00 18800.00 1600.00 161.00 19200.00 1600.00 105.00 19600.00 1600.00 151.00 20000.00 1600.00 200.00 20400.00 1600.00 237.00 20800.00 1600.00 351.00 21200.00 1600.00 417.00 21600.00 1600.00 489.00 22000.00 1600.00 559.00 22400.00 1600.00 613.00 22800.00 1600.00 661.00 23200.00 1600.00 660.00 23600.00 1600.00 535.00 24000.00 1600.00 452.00 24400.00 1600.00 357.00 24800.00 1600.00 318.00 25200.00 1600.00 284.00 25600.00 1600.00 323.00 26000.00 1600.00 334.00 26400.00 1600.00 366.00 26800.00 1600.00 398.00 27200.00 1600.00 437.00 27600.00 1600.00 509.00 28000.00 1600.00 584.00 28400.00 1600.00 641.00 28800.00 1600.00 741.00 29200.00 1600.00 799.00 29600.00 1600.00 851.00 30000.00 1600.00 873.00 30400.00 1600.00 887.00 30800.00 1600.00 920.00 31200.00 1600.00 950.00 31600.00 1600.00 998.00 32000.00 1600.00 995.00 32400.00 1600.00 950.00 32800.00 1600.00 967.00 33200.00 1600.00 910.00 33600.00 1600.00 840.00 34000.00 1600.00 792.00 34400.00 1600.00 743.00 34800.00 1600.00 726.00 35200.00 1600.00 722.00 35600.00 1600.00 723.00 36000.00 1600.00 736.00 36400.00 1600.00 763.00 36800.00 1600.00 788.00 37200.00 1600.00 780.00 37600.00 1600.00 791.00 38000.00 1600.00 812.00 38400.00 1600.00 853.00 38800.00 1600.00 834.00 39200.00 1600.00 779.00 39600.00 1600.00 768.00 40000.00 1600.00 
[...]
POINT_DATA 16912
SCALARS elevation float
LOOKUP_TABLE default
9.00 5.00 5.00 5.00 5.00 5.00 5.00 5.00 5.00 5.00 5.00 4.00 4.00 4.00 4.00 4.00 4.00 4.00 5.00 5.00 5.00 5.00 5.00 5.00 5.00 5.00 5.00 5.00 4.00 7.00 31.00 60.00 141.00 162.00 205.00 91.00 131.00 173.00 217.00 200.00 97.00 56.00 82.00 144.00 177.00 191.00 212.00 274.00 374.00 430.00 478.00 505.00 532.00 592.00 661.00 663.00 811.00 860.00 749.00 665.00 606.00 508.00 616.00 525.00 577.00 611.00 671.00 722.00 798.00 758.00 771.00 739.00 814.00 803.00 893.00 933.00 948.00 996.00 972.00 925.00 856.00 880.00 792.00 820.00 807.00 829.00 829.00 805.00 766.00 739.00 737.00 763.00 727.00 756.00 790.00 793.00 791.00 783.00 748.00 714.00 814.00 834.00 859.00 898.00 910.00 949.00 915.00 903.00 958.00 979.00 994.00 923.00 9.00 9.00 9.00 9.00 5.00 5.00 5.00 5.00 5.00 5.00 5.00 5.00 5.00 5.00 5.00 5.00 4.00 4.00 4.00 4.00 4.00 4.00 5.00 5.00 5.00 5.00 9.00 9.00 14.00 25.00 45.00 90.00 131.00 209.00 253.00 236.00 115.00 160.00 209.00 255.00 264.00 181.00 73.00 72.00 76.00 123.00 138.00 195.00 283.00 387.00 472.00 560.00 633.00 649.00 742.00 809.00 877.00 842.00 740.00 631.00 502.00 438.00 543.00 422.00 542.00 500.00 548.00 631.00 638.00 625.00 666.00 623.00 638.00 772.00 898.00 976.00 1009.00 949.00 946.00 943.00 914.00 882.00 836.00 821.00 793.00 792.00 797.00 745.00 718.00 720.00 765.00 754.00 738.00 754.00 781.00 812.00 842.00 824.00 777.00 715.00 782.00 869.00 836.00 911.00 959.00 928.00 897.00 899.00 975.00 1000.00 966.00 907.00 9.00 9.00 9.00 9.00 9.00 9.00 9.00 9.00 5.00 5.00 5.00 5.00 5.00 5.00 5.00 5.00 5.00 5.00 5.00 5.00 4.00 4.00 4.00 4.00 4.00 5.00 5.00 15.00 29.00 57.00 99.00 153.00 169.00 203.00 287.00 223.00 120.00 126.00 183.00 239.00 304.00 287.00 191.00 175.00 100.00 110.00 84.00 105.00 237.00 332.00 379.00 429.00 569.00 608.00 691.00 727.00 764.00 741.00 662.00 569.00 418.00 433.00 428.00 328.00 394.00 420.00 463.00 488.00 526.00 498.00 505.00 590.00 693.00 806.00 867.00 910.00 941.00 950.00 959.00 947.00 922.00 861.00 863.00 813.00 760.00 764.00 738.00 719.00 716.00 739.00 783.00 770.00 765.00 753.00 791.00 854.00 850.00 812.00 731.00 756.00 833.00 847.00 904.00 972.00 966.00 918.00 881.00 949.00 1009.00 1020.00 937.00 928.00 9.00 9.00 9.00 9.00 9.00 9.00 9.00 9.00 9.00 9.00 9.00 9.00 5.00 5.00 5.00 5.00 5.00 5.00 5.00 5.00 5.00 5.00 5.00 5.00 4.00 4.00 4.00 16.00 32.00 50.00 99.00 147.00 235.00 260.00 287.00 241.00 164.00 123.00 196.00 242.00 278.00 318.00 300.00 303.00 223.00 274.00 161.00 105.00 151.00 200.00 237.00 351.00 417.00 489.00 559.00 613.00 661.00 660.00 535.00 452.00 357.00 318.00 284.00 323.00 334.00 366.00 398.00 437.00 509.00 584.00 641.00 741.00 799.00 851.00 873.00 887.00 920.00 950.00 998.00 995.00 950.00 967.00 910.00 840.00 792.00 743.00 726.00 722.00 723.00 736.00 763.00 788.00 780.00 791.00 812.00 853.00 834.00 779.00 768.00 786.00 899.00 879.00 983.00 992.00 947.00 889.00 905.00 937.00 1035.00 968.00 933.00 956.00 9.00 9.00 9.00 9.00 9.00 9.00 9.00 9.00 9.00 9.00 9.00 9.00 9.00 9.00 9.00 5.00 5.00 5.00 5.00 5.00 5.00 5.00 5.00 5.00 5.00 5.00 7.00 10.00 31.00 69.00 96.00 177.00 243.00 203.00 272.00 288.00 198.00 135.00 169.00 233.00 288.00 343.00 354.00 304.00 327.00 428.00 311.00 202.00 107.00 190.00 310.00 313.00 318.00 334.00 387.00 471.00 515.00 536.00 468.00 337.00 297.00 247.00 331.00 340.00 423.00 443.00 494.00 517.00 572.00 657.00 718.00 762.00 695.00 739.00 741.00 830.00 900.00 984.00 1030.00 1081.00 1030.00 949.00 910.00 865.00 798.00 747.00 739.00 731.00 725.00 735.00 738.00 776.00 802.00 825.00 853.00 851.00 777.00 817.00 793.00 879.00 852.00 1016.00 1030.00 955.00 911.00 908.00 927.00 937.00 1003.00 967.00 964.00 930.00 9.00 9.00 9.00 9.00 9.00 9.00 9.00 9.00 9.00 9.00 9.00 9.00 9.00 9.00 9.00 9.00 9.00 9.00 9.00 5.00 5.00 5.00 5.00 5.00 5.00 5.00 6.00 16.00 20.00 53.00 55.00 132.00 194.00 326.00 275.00 323.00 234.00 182.00 157.00 217.00 269.00 298.00 327.00 388.00 376.00 430.00 524.00 318.00 161.00 112.00 225.00 201.00 197.00 222.00 319.00 355.00 389.00 380.00 356.00 259.00 230.00 368.00 281.00 399.00 487.00 508.00 509.00 536.00 626.00 654.00 600.00 634.00 575.00 606.00 764.00 888.00 1002.00 993.00 1049.00 1061.00 984.00 960.00 883.00 858.00 796.00 752.00 742.00 731.00 737.00 745.00 764.00 781.00 822.00 852.00 824.00 806.00 771.00 853.00 835.00 978.00 937.00 997.00 1055.00 948.00 911.00 962.00 1004.00 982.00 1040.00 974.00 960.00 985.00 7.00 7.00 7.00 7.00 7.00 9.00 9.00 9.00 9.00 9.00 9.00 9.00 9.00 9.00 9.00 9.00 9.00 9.00 9.00 9.00 9.00 9.00 5.00 5.00 5.00 5.00 8.00 29.00 75.00 40.00 42.00 49.00 89.00 200.00 318.00 320.00 325.00 268.00 169.00 207.00 238.00 293.00 330.00 394.00 489.00 504.00 637.00 508.00 348.00 282.00 173.00 161.00 262.00 145.00 179.00 245.00 230.00 222.00 211.00 193.00 279.00 356.00 345.00 378.00 398.00 426.00 477.00 497.00 517.00 512.00 472.00 475.00 552.00 669.00 797.00 891.00 889.00 905.00 1010.00 957.00 904.00 894.00 891.00 803.00 781.00 764.00 759.00 747.00 752.00 761.00 789.00 802.00 864.00 844.00 834.00 824.00 821.00 840.00 785.00 969.00 1043.00 1051.00 1027.00 953.00 936.00 1019.00 1056.00 1056.00 1007.00 992.00 952.00 989.00 7.00 7.00 7.00 7.00 7.00 7.00 7.00 7.00 7.00 9.00 9.00 9.00 9.00 9.00 9.00 9.00 9.00 9.00 9.00 9.00 9.00 9.00 9.00 9.00 9.00 9.00 31.00 160.00 150.00 168.00 97.00 72.00 90.00 154.00 340.00 306.00 365.00 312.00 245.00 197.00 222.00 267.00 321.00 408.00 550.00 651.00 689.00 558.00 406.00 291.00 251.00 199.00 267.00 226.00 146.00 163.00 150.00 217.00 267.00 191.00 322.00 281.00 301.00 284.00 307.00 330.00 427.00 344.00 348.00 367.00 462.00 479.00 555.00 618.00 725.00 788.00 794.00 843.00 890.00 859.00 871.00 891.00 846.00 855.00 806.00 793.00 772.00 789.00 825.00 829.00 855.00 828.00 875.00 866.00 856.00 803.00 863.00 822.00 803.00 957.00 1081.00 1117.00 1080.00 1057.00 962.00 1038.00 1096.00 1091.00 1053.00 1021.00 972.00 1037.00 1.00 4.00 4.00 7.00 7.00 7.00 7.00 7.00 7.00 7.00 7.00 7.00 7.00 7.00 9.00 9.00 9.00 9.00 9.00 9.00 9.00 9.00 9.00 9.00 7.00 16.00 112.00 251.00 289.00 270.00 162.00 103.00 115.00 147.00 332.00 368.00 384.00 376.00 276.00 240.00 225.00 253.00 371.00 492.00 593.00 713.00 674.00 509.00 411.00 371.00 212.00 263.00 288.00 301.00 191.00 144.00 152.00 168.00 298.00 290.00 202.00 210.00 242.00 252.00 242.00 280.00 315.00 395.00 445.00 511.00 441.00 534.00 608.00 603.00 718.00 716.00 778.00 869.00 837.00 849.00 892.00 894.00 888.00 862.00 869.00 846.00 811.00 776.00 814.00 861.00 894.00 879.00 916.00 851.00 871.00 870.00 852.00 772.00 851.00 946.00 1020.00 1105.00 1160.00 1033.00 985.00 1040.00 1146.00 1180.00 1096.00 1094.00 988.00 1063.00 1.00 1.00 1.00 1.00 4.00 4.00 4.00 7.00 7.00 7.00 7.00 7.00 7.00 7.00 7.00 7.00 7.00 7.00 9.00 9.00 9.00 9.00 9.00 9.00 9.00 6.00 142.00 260.00 356.00 338.00 202.00 152.00 100.00 126.00 266.00 409.00 412.00 383.00 320.00 290.00 246.00 331.00 415.00 478.00 619.00 721.00 713.00 513.00 363.00 310.00 283.00 390.00 332.00 316.00 305.00 198.00 173.00 162.00 184.00 254.00 233.00 293.00 346.00 379.00 298.00 330.00 333.00 384.00 391.00 487.00 572.00 575.00 612.00 666.00 683.00 766.00 844.00 816.00 815.00 905.00 954.00 975.00 928.00 916.00 880.00 898.00 862.00 825.00 838.00 849.00 867.00 972.00 930.00 894.00 910.00 897.00 819.00 814.00 899.00 896.00 929.00 1082.00 1125.00 1027.00 1069.00 1064.00 1104.00 1191.00 1144.00 1110.00 997.00 1082.00 1.00 1.00 1.00 1.00 1.00 1.00 1.00 4.00 4.00 4.00 4.00 7.00 7.00 7.00 7.00 7.00 7.00 7.00 7.00 7.00 7.00 26.00 26.00 26.00 62.00 134.00 234.00 314.00 392.00 394.00 256.00 152.00 151.00 92.00 162.00 310.00 309.00 280.00 315.00 351.00 350.00 400.00 475.00 613.00 613.00 729.00 586.00 483.00 380.00 328.00 403.00 364.00 327.00 388.00 361.00 276.00 307.00 232.00 199.00 167.00 166.00 236.00 285.00 330.00 339.00 356.00 321.00 292.00 334.00 399.00 444.00 462.00 529.00 596.00 646.00 699.00 777.00 738.00 815.00 900.00 971.00 982.00 951.00 923.00 918.00 923.00 905.00 889.00 854.00 875.00 929.00 943.00 894.00 935.00 913.00 852.00 803.00 827.00 911.00 945.00 996.00 1041.00 1123.00 1072.00 1145.00 1174.00 1173.00 1170.00 1101.00 1037.00 1015.00 1137.00 2.00 2.00 1.00 1.00 1.00 1.00 1.00 1.00 1.00 1.00 4.00 4.00 4.00 4.00 4.00 7.00 7.00 7.00 7.00 7.00 7.00 7.00 7.00 8.00 8.00 128.00 236.00 324.00 391.00 373.00 283.00 180.00 248.00 175.00 114.00 137.00 173.00 224.00 288.00 334.00 415.00 431.00 533.00 606.00 613.00 575.00 579.00 476.00 511.00 440.00 501.00 442.00 476.00 538.00 390.00 289.00 413.00 306.00 322.00 262.00 173.00 169.00 176.00 203.00 254.00 348.00 399.00 355.00 341.00 339.00 370.00 414.00 470.00 584.00 643.00 719.00 701.00 712.00 783.00 837.00 899.00 945.00 973.00 944.00 955.00 900.00 892.00 901.00 924.00 883.00 894.00 956.00 930.00 996.00 909.00 876.00 806.00 864.00 854.00 900.00 945.00 987.00 1099.00 1095.00 1095.00 1148.00 1200.00 1225.00 1121.00 1051.00 1052.00 1103.00 2.00 2.00 2.00 2.00 2.00 1.00 1.00 1.00 1.00 1.00 1.00 1.00 4.00 4.00 4.00 4.00 4.00 4.00 5.00 5.00 7.00 7.00 7.00 7.00 7.00 83.00 226.00 313.00 376.00 315.00 258.00 226.00 300.00 361.00 229.00 230.00 195.00 212.00 229.00 371.00 459.00 485.00 563.00 610.00 493.00 480.00 576.00 626.00 627.00 583.00 642.00 616.00 542.00 434.00 362.00 385.00 394.00 279.00 318.00 240.00 179.00 182.00 173.00 222.00 273.00 337.00 389.00 375.00 340.00 361.00 389.00 436.00 500.00 632.00 657.00 765.00 822.00 758.00 851.00 922.00 932.00 959.00 988.00 985.00 925.00 900.00 907.00 897.00 903.00 917.00 960.00 959.00 970.00 974.00 934.00 875.00 805.00 828.00 954.00 1016.00 1008.00 1017.00 1037.00 1063.00 1116.00 1188.00 1231.00 1211.00 1157.00 1101.00 1119.00 1177.00 2.00 2.00 2.00 2.00 2.00 2.00 2.00 2.00 1.00 1.00 1.00 1.00 1.00 1.00 1.00 4.00 4.00 4.00 4.00 4.00 4.00 5.00 5.00 5.00 7.00 114.00 198.00 275.00 359.00 370.00 317.00 282.00 331.00 441.00 357.00 201.00 174.00 156.00 218.00 247.00 305.00 415.00 446.00 421.00 420.00 548.00 598.00 678.00 762.00 654.00 749.00 692.00 709.00 607.00 539.00 496.00 405.00 327.00 358.00 256.00 189.00 237.00 175.00 192.00 239.00 297.00 334.00 290.00 313.00 329.00 400.00 454.00 516.00 566.00 668.00 705.00 782.00 849.00 765.00 828.00 917.00 933.00 940.00 924.00 884.00 912.00 918.00 933.00 935.00 946.00 947.00 996.00 989.00 982.00 967.00 862.00 875.00 806.00 920.00 911.00 901.00 922.00 998.00 1035.00 1100.00 1126.00 1212.00 1202.00 1169.00 1182.00 1262.00 1291.00 2.00 2.00 2.00 2.00 2.00 2.00 2.00 2.00 2.00 2.00 2.00 1.00 1.00 1.00 1.00 1.00 1.00 1.00 4.00 4.00 4.00 4.00 4.00 5.00 6.00 81.00 185.00 245.00 302.00 315.00 384.00 369.00 405.00 344.00 221.00 200.00 212.00 217.00 197.00 194.00 275.00 255.00 288.00 342.00 412.00 516.00 616.00 709.00 793.00 774.00 804.00 814.00 835.00 720.00 630.00 561.00 421.00 315.00 356.00 286.00 251.00 274.00 215.00 180.00 212.00 273.00 249.00 234.00 241.00 310.00 376.00 468.00 538.00 597.00 654.00 683.00 754.00 798.00 870.00 862.00 835.00 870.00 923.00 875.00 907.00 945.00 945.00 903.00 886.00 878.00 851.00 873.00 885.00 938.00 937.00 902.00 889.00 821.00 837.00 891.00 917.00 975.00 978.00 975.00 1026.00 1135.00 1187.00 1301.00 1288.00 1304.00 1368.00 1354.00 2.00 2.00 2.00 2.00 2.00 2.00 2.00 2.00 2.00 2.00 2.00 2.00 2.00 3.00 1.00 1.00 1.00 1.00 1.00 1.00 8.00 8.00 6.00 6.00 12.00 108.00 121.00 150.00 186.00 263.00 309.00 442.00 466.00 409.00 341.00 234.00 324.00 361.00 276.00 205.00 222.00 282.00 400.00 517.00 511.00 570.00 674.00 775.00 927.00 969.00 902.00 937.00 901.00 760.00 589.00 499.00 401.00 414.00 393.00 337.00 267.00 299.00 298.00 199.00 188.00 218.00 240.00 306.00 299.00 314.00 316.00 347.00 450.00 550.00 563.00 700.00 771.00 772.00 820.00 881.00 889.00 872.00 864.00 905.00 932.00 948.00 913.00 839.00 838.00 796.00 801.00 807.00 846.00 909.00 924.00 946.00 873.00 853.00 838.00 834.00 900.00 912.00 1003.00 1001.00 1066.00 1152.00 1213.00 1349.00 1375.00 1402.00 1311.00 1227.00 2.00 2.00 2.00 2.00 2.00 2.00 2.00 2.00 2.00 2.00 2.00 2.00 2.00 2.00 2.00 2.00 3.00 1.00 1.00 1.00 1.00 3.00 7.00 8.00 17.00 90.00 112.00 134.00 172.00 195.00 286.00 374.00 564.00 516.00 436.00 379.00 500.00 479.00 238.00 274.00 240.00 309.00 393.00 514.00 457.00 567.00 672.00 800.00 925.00 1072.00 1022.00 996.00 869.00 751.00 609.00 618.00 503.00 470.00 374.00 415.00 302.00 347.00 300.00 205.00 205.00 263.00 317.00 288.00 353.00 340.00 387.00 391.00 413.00 441.00 586.00 690.00 745.00 744.00 749.00 789.00 889.00 867.00 847.00 876.00 887.00 839.00 823.00 776.00 787.00 799.00 815.00 836.00 811.00 830.00 892.00 942.00 909.00 875.00 879.00 888.00 863.00 986.00 1073.00 1140.00 1151.00 1239.00 1299.00 1375.00 1418.00 1371.00 1283.00 1173.00 2.00 2.00 2.00 2.00 2.00 2.00 2.00 2.00 2.00 2.00 2.00 2.00 2.00 2.00 2.00 2.00 2.00 2.00 3.00 3.00 1.00 1.00 1.00 8.00 27.00 113.00 193.00 270.00 324.00 343.00 348.00 495.00 566.00 534.00 410.00 464.00 496.00 353.00 305.00 379.00 273.00 283.00 375.00 375.00 411.00 563.00 657.00 745.00 887.00 1003.00 1098.00 1046.00 907.00 763.00 727.00 694.00 561.00 481.00 399.00 415.00 306.00 395.00 328.00 284.00 197.00 258.00 291.00 389.00 395.00 421.00 493.00 420.00 496.00 457.00 431.00 524.00 556.00 567.00 609.00 746.00 772.00 707.00 710.00 750.00 775.00 752.00 760.00 844.00 858.00 819.00 876.00 904.00 838.00 898.00 877.00 906.00 923.00 940.00 950.00 970.00 922.00 950.00 1076.00 1169.00 1249.00 1298.00 1371.00 1357.00 1338.00 1314.00 1233.00 1157.00 2.00 2.00 2.00 2.00 2.00 2.00 2.00 2.00 2.00 2.00 2.00 2.00 2.00 2.00 2.00 2.00 2.00 2.00 2.00 2.00 2.00 3.00 3.00 9.00 26.00 113.00 189.00 274.00 309.00 298.00 363.00 509.00 571.00 610.00 563.00 553.00 472.00 425.00 410.00 310.00 286.00 316.00 343.00 383.00 423.00 515.00 574.00 664.00 791.00 931.00 1050.00 1130.00 986.00 883.00 822.00 707.00 598.00 440.00 519.00 392.00 354.00 402.00 414.00 335.00 309.00 211.00 384.00 455.00 451.00 548.00 519.00 460.00 530.00 587.00 484.00 475.00 482.00 512.00 543.00 558.00 591.00 691.00 759.00 801.00 800.00 837.00 869.00 938.00 915.00 885.00 945.00 966.00 872.00 942.00 924.00 1000.00 1010.00 1018.00 1072.00 1027.00 962.00 917.00 964.00 1075.00 1205.00 1338.00 1383.00 1371.00 1286.00 1233.00 1187.00 1190.00 4.00 4.00 4.00 4.00 4.00 4.00 4.00 4.00 4.00 2.00 2.00 2.00 2.00 2.00 2.00 2.00 2.00 2.00 2.00 2.00 2.00 2.00 5.00 8.00 15.00 132.00 106.00 144.00 238.00 260.00 406.00 449.00 540.00 595.00 473.00 475.00 454.00 419.00 445.00 377.00 343.00 316.00 344.00 420.00 495.00 659.00 675.00 726.00 835.00 931.00 1053.00 1146.00 994.00 855.00 763.00 631.00 548.00 501.00 582.00 486.00 381.00 533.00 579.00 529.00 426.00 254.00 288.00 315.00 447.00 474.00 532.00 576.00 586.00 649.00 587.00 618.00 631.00 706.00 711.00 661.00 706.00 782.00 900.00 951.00 978.00 955.00 933.00 1057.00 979.00 900.00 985.00 1036.00 960.00 957.00 976.00 1066.00 1079.00 1086.00 1119.00 1079.00 1032.00 1088.00 1043.00 1060.00 1203.00 1282.00 1372.00 1304.00 1255.00 1209.00 1184.00 1216.00 4.00 4.00 4.00 4.00 4.00 4.00 4.00 4.00 4.00 4.00 4.00 4.00 4.00 4.00 4.00 4.00 4.00 5.00 5.00 5.00 5.00 5.00 6.00 10.00 41.00 78.00 141.00 238.00 318.00 338.00 347.00 356.00 505.00 506.00 424.00 381.00 321.00 361.00 446.00 343.00 303.00 313.00 381.00 506.00 531.00 674.00 763.00 814.00 912.00 978.00 1086.00 1138.00 1015.00 912.00 780.00 648.00 560.00 582.00 640.00 514.00 458.00 487.00 596.00 618.00 523.00 364.00 222.00 285.00 381.00 423.00 454.00 538.00 514.00 638.00 673.00 719.00 738.00 789.00 829.00 839.00 877.00 875.00 990.00 1011.00 1075.00 1073.00 1054.00 1038.00 1045.00 996.00 1042.00 1092.00 1088.00 1088.00 1048.00 1137.00 1186.00 1174.00 1208.00 1183.00 1107.00 1153.00 1158.00 1195.00 1228.00 1302.00 1272.00 1241.00 1196.00 1197.00 1221.00 1252.00 4.00 4.00 4.00 4.00 4.00 4.00 4.00 4.00 4.00 4.00 4.00 4.00 4.00 4.00 4.00 4.00 4.00 4.00 4.00 4.00 4.00 5.00 8.00 128.00 36.00 62.00 58.00 138.00 283.00 304.00 259.00 362.00 383.00 360.00 368.00 277.00 357.00 418.00 407.00 330.00 308.00 365.00 365.00 548.00 613.00 693.00 775.00 843.00 989.00 1016.00 1085.00 1125.00 1013.00 881.00 809.00 684.00 599.00 606.00 641.00 580.00 493.00 490.00 537.00 578.00 551.00 481.00 310.00 233.00 359.00 365.00 372.00 388.00 487.00 538.00 546.00 587.00 673.00 730.00 796.00 868.00 959.00 920.00 923.00 993.00 1106.00 1126.00 1137.00 1121.00 1150.00 1107.00 1151.00 1199.00 1196.00 1200.00 1197.00 1182.00 1160.00 1090.00 1125.00 1222.00 1201.00 1225.00 1200.00 1249.00 1199.00 1275.00 1257.00 1257.00 1281.00 1210.00 1219.00 1363.00 7.00 7.00 7.00 22.00 22.00 22.00 22.00 6.00 6.00 6.00 6.00 6.00 6.00 6.00 6.00 6.00 6.00 6.00 6.00 6.00 5.00 5.00 35.00 93.00 140.00 164.00 114.00 83.00 158.00 167.00 263.00 308.00 284.00 244.00 266.00 429.00 405.00 491.00 452.00 337.00 344.00 394.00 374.00 427.00 562.00 661.00 735.00 900.00 980.00 1009.00 1069.00 1123.00 1026.00 878.00 786.00 676.00 625.00 595.00 613.00 651.00 492.00 546.00 526.00 527.00 590.00 500.00 412.00 281.00 250.00 300.00 449.00 443.00 443.00 407.00 573.00 667.00 687.00 730.00 852.00 892.00 881.00 791.00 967.00 1018.00 1129.00 1164.00 1175.00 1170.00 1154.00 1192.00 1181.00 1216.00 1104.00 1142.00 1078.00 1082.00 1074.00 1104.00 1201.00 1227.00 1257.00 1263.00 1299.00 1348.00 1259.00 1332.00 1338.00 1282.00 1243.00 1206.00 1293.00 1339.00 7.00 7.00 7.00 7.00 7.00 7.00 7.00 7.00 22.00 22.00 22.00 22.00 22.00 22.00 22.00 22.00 26.00 26.00 26.00 26.00 26.00 26.00 138.00 234.00 307.00 375.00 265.00 129.00 92.00 145.00 276.00 309.00 249.00 245.00 374.00 455.00 520.00 565.00 549.00 411.00 447.00 467.00 391.00 534.00 666.00 692.00 775.00 867.00 934.00 995.00 1047.00 1102.00 1071.00 938.00 811.00 705.00 750.00 684.00 655.00 685.00 603.00 613.00 557.00 555.00 552.00 549.00 437.00 353.00 265.00 445.00 456.00 527.00 578.00 579.00 525.00 540.00 553.00 621.00 771.00 749.00 740.00 813.00 920.00 937.00 1013.00 996.00 1095.00 1169.00 1207.00 1190.00 1199.00 1156.00 1071.00 1036.00 1021.00 1013.00 1017.00 1164.00 1261.00 1215.00 1148.00 1177.00 1323.00 1312.00 1301.00 1304.00 1318.00 1292.00 1257.00 1258.00 1254.00 1364.00 7.00 7.00 7.00 7.00 7.00 7.00 7.00 7.00 7.00 7.00 7.00 7.00 7.00 22.00 22.00 22.00 22.00 22.00 22.00 22.00 22.00 45.00 138.00 265.00 324.00 378.00 395.00 271.00 110.00 159.00 198.00 240.00 183.00 378.00 511.00 561.00 568.00 612.00 610.00 503.00 520.00 509.00 380.00 479.00 586.00 636.00 741.00 827.00 885.00 907.00 1005.00 1088.00 1096.00 962.00 868.00 857.00 822.00 775.00 692.00 700.00 676.00 599.00 577.00 530.00 541.00 562.00 531.00 418.00 300.00 327.00 389.00 474.00 538.00 588.00 651.00 658.00 684.00 639.00 636.00 706.00 773.00 782.00 817.00 833.00 903.00 1029.00 1153.00 1162.00 1130.00 1106.00 1137.00 1097.00 1036.00 931.00 927.00 979.00 1086.00 1127.00 1154.00 1095.00 1087.00 1195.00 1297.00 1235.00 1209.00 1269.00 1292.00 1249.00 1244.00 1304.00 1324.00 1389.00 7.00 7.00 7.00 7.00 7.00 7.00 7.00 7.00 7.00 7.00 7.00 7.00 7.00 7.00 7.00 7.00 7.00 7.00 8.00 13.00 13.00 13.00 149.00 239.00 300.00 360.00 254.00 286.00 213.00 145.00 140.00 188.00 184.00 216.00 249.00 386.00 414.00 490.00 548.00 537.00 568.00 573.00 468.00 419.00 488.00 564.00 680.00 705.00 756.00 777.00 867.00 1011.00 1103.00 1044.00 975.00 979.00 845.00 872.00 750.00 736.00 688.00 628.00 555.00 543.00 569.00 599.00 543.00 375.00 334.00 342.00 277.00 428.00 529.00 606.00 653.00 673.00 723.00 768.00 728.00 753.00 866.00 944.00 967.00 985.00 943.00 961.00 1022.00 1030.00 1020.00 1037.00 1021.00 1002.00 990.00 993.00 1040.00 967.00 1002.00 1029.00 1011.00 1077.00 1123.00 1174.00 1174.00 1162.00 1215.00 1270.00 1299.00 1288.00 1281.00 1338.00 1365.00 1376.00 7.00 7.00 7.00 7.00 7.00 7.00 7.00 7.00 7.00 7.00 7.00 7.00 7.00 7.00 7.00 7.00 7.00 7.00 7.00 7.00 7.00 8.00 102.00 105.00 98.00 118.00 178.00 305.00 333.00 307.00 243.00 256.00 326.00 357.00 302.00 249.00 283.00 347.00 400.00 528.00 612.00 655.00 615.00 533.00 503.00 521.00 562.00 636.00 719.00 822.00 844.00 960.00 1060.00 1118.00 1056.00 1057.00 939.00 936.00 867.00 821.00 708.00 643.00 570.00 572.00 575.00 574.00 466.00 349.00 457.00 423.00 307.00 397.00 498.00 558.00 616.00 680.00 737.00 816.00 786.00 845.00 93